Title: * Z:\home\luke\Backup\info\projects\transistorComputer\CMOS\Computer.asc
Date: Sat Mar 17 11:39:57 2018
Plotname: Operating Point
Flags: real
No. Variables: 177
No. Points:            1
Offset:   0.0000000000000000e+000
Command: Linear Technology Corporation LTspice IV
Backannotation: x2 vdd cnt[0] cnt[1] cnt[2] clk
Backannotation: x3 d[0] d[1] d[2] d[3] d[4] d[5] d[6] d[7] d[8] vdd clk addr0[0] addr0[1] addr1[0] addr1[1] addr2[0] addr2[1] q1[0] q1[1] q1[2] q1[3] q1[4] q1[5] q1[6] q1[7] q1[8] !q1[0] !q1[1] !q1[2] !q1[3] !q1[4] !q1[5] !q1[6] !q1[7] !q1[8] q2[0] q2[1] q2[2] q2[3] q2[4] q2[5] q2[6] q2[7] q2[8] !q2[0] !q2[1] !q2[2] !q2[3] !q2[4] !q2[5] !q2[6] !q2[7] !q2[8]
Backannotation: x4 a[0] a[1] a[2] a[3] b[0] b[1] b[2] b[3] c vdd out[0] out[1] out[2] out[3] out[4] out[5] out[6] out[7] out[8]
Backannotation: x1 wl8 wl7 bl8 bl7 bl6 bl5 bl4 bl3 bl2 bl1 bl0 vdd wl0 wl6 wl5 wl4 wl3 wl2 wl1
Backannotation: x5 clk vdd out[0] out[1] out[2] out[3] addr[0] addr[1]
Backannotation: x7 d[0] d[1] d[2] d[3] d[4] d[5] d[6] d[7] d[8] vdd q[0] q[1] q[2] q[3] q[4] q[5] q[6] q[7] q[8] we addr
Backannotation: x8 a[0] a[1] a[2] a[3] a[4] a[5] a[6] a[7] a[8] b[0] b[1] b[2] b[3] b[4] b[5] b[6] b[7] b[8] c vdd out[0] out[1] out[2] out[3] out[4] out[5] out[6] out[7] out[8]
Backannotation: x2:x1 d[0] d[1] d[2] vdd q[0] q[1] q[2] clk !q[0] !q[1] !q[2]
Backannotation: x2:x2 ps[0] ps[1] ps[2] vdd ns[0] ns[1] ns[2]
Backannotation: x3:x1 d[0] d[1] d[2] d[3] d[4] d[5] d[6] d[7] d[8] vdd q[0] q[1] q[2] q[3] q[4] q[5] q[6] q[7] q[8] clk !q[0] !q[1] !q[2] !q[3] !q[4] !q[5] !q[6] !q[7] !q[8]
Backannotation: x3:x2 d[0] d[1] d[2] d[3] d[4] d[5] d[6] d[7] d[8] vdd q[0] q[1] q[2] q[3] q[4] q[5] q[6] q[7] q[8] clk !q[0] !q[1] !q[2] !q[3] !q[4] !q[5] !q[6] !q[7] !q[8]
Backannotation: x3:x3 d[0] d[1] d[2] d[3] d[4] d[5] d[6] d[7] d[8] vdd q[0] q[1] q[2] q[3] q[4] q[5] q[6] q[7] q[8] clk !q[0] !q[1] !q[2] !q[3] !q[4] !q[5] !q[6] !q[7] !q[8]
Backannotation: x3:x4 d[0] d[1] d[2] d[3] d[4] d[5] d[6] d[7] d[8] vdd q[0] q[1] q[2] q[3] q[4] q[5] q[6] q[7] q[8] clk !q[0] !q[1] !q[2] !q[3] !q[4] !q[5] !q[6] !q[7] !q[8]
Backannotation: x3:x5 a[0] a[1] a[2] a[3] a[4] a[5] a[6] a[7] a[8] b[0] b[1] b[2] b[3] b[4] b[5] b[6] b[7] b[8] c vdd out[0] out[1] out[2] out[3] out[4] out[5] out[6] out[7] out[8]
Backannotation: x3:x6 a[0] a[1] a[2] a[3] a[4] a[5] a[6] a[7] a[8] b[0] b[1] b[2] b[3] b[4] b[5] b[6] b[7] b[8] c vdd out[0] out[1] out[2] out[3] out[4] out[5] out[6] out[7] out[8]
Backannotation: x3:x7 a[0] a[1] a[2] a[3] a[4] a[5] a[6] a[7] a[8] b[0] b[1] b[2] b[3] b[4] b[5] b[6] b[7] b[8] c vdd out[0] out[1] out[2] out[3] out[4] out[5] out[6] out[7] out[8]
Backannotation: x3:x8 a[0] a[1] a[2] a[3] a[4] a[5] a[6] a[7] a[8] b[0] b[1] b[2] b[3] b[4] b[5] b[6] b[7] b[8] c vdd out[0] out[1] out[2] out[3] out[4] out[5] out[6] out[7] out[8]
Backannotation: x3:x9 a[0] a[1] a[2] a[3] a[4] a[5] a[6] a[7] a[8] b[0] b[1] b[2] b[3] b[4] b[5] b[6] b[7] b[8] c vdd out[0] out[1] out[2] out[3] out[4] out[5] out[6] out[7] out[8]
Backannotation: x3:x10 a[0] a[1] a[2] a[3] a[4] a[5] a[6] a[7] a[8] b[0] b[1] b[2] b[3] b[4] b[5] b[6] b[7] b[8] c vdd out[0] out[1] out[2] out[3] out[4] out[5] out[6] out[7] out[8]
Backannotation: x3:x13 a[0] a[1] a[2] a[3] a[4] a[5] a[6] a[7] a[8] b[0] b[1] b[2] b[3] b[4] b[5] b[6] b[7] b[8] c vdd out[0] out[1] out[2] out[3] out[4] out[5] out[6] out[7] out[8]
Backannotation: x3:x14 a[0] a[1] a[2] a[3] a[4] a[5] a[6] a[7] a[8] b[0] b[1] b[2] b[3] b[4] b[5] b[6] b[7] b[8] c vdd out[0] out[1] out[2] out[3] out[4] out[5] out[6] out[7] out[8]
Backannotation: x3:x19 a[0] a[1] a[2] a[3] a[4] a[5] a[6] a[7] a[8] b[0] b[1] b[2] b[3] b[4] b[5] b[6] b[7] b[8] c vdd out[0] out[1] out[2] out[3] out[4] out[5] out[6] out[7] out[8]
Backannotation: x3:x24 a[0] a[1] a[2] a[3] a[4] a[5] a[6] a[7] a[8] b[0] b[1] b[2] b[3] b[4] b[5] b[6] b[7] b[8] c vdd out[0] out[1] out[2] out[3] out[4] out[5] out[6] out[7] out[8]
Backannotation: x3:x25 a[0] a[1] a[2] a[3] a[4] a[5] a[6] a[7] a[8] b[0] b[1] b[2] b[3] b[4] b[5] b[6] b[7] b[8] c vdd out[0] out[1] out[2] out[3] out[4] out[5] out[6] out[7] out[8]
Backannotation: x3:x26 a[0] a[1] a[2] a[3] a[4] a[5] a[6] a[7] a[8] b[0] b[1] b[2] b[3] b[4] b[5] b[6] b[7] b[8] c vdd out[0] out[1] out[2] out[3] out[4] out[5] out[6] out[7] out[8]
Backannotation: x3:x11 clk vdd out[0] out[1] out[2] out[3] addr[0] addr[1]
Backannotation: x4:x1 a[0] a[1] a[2] a[3] vdd sum[0] sum[1] sum[2] sum[3] b[0] b[1] b[2] b[3] co
Backannotation: x4:x2 a[0] a[1] a[2] a[3] vdd prod[0] prod[1] prod[2] prod[3] prod[4] prod[5] prod[6] prod[7] b[0] b[1] b[2] b[3]
Backannotation: x4:x3 a[0] a[1] a[2] a[3] a[4] a[5] a[6] a[7] a[8] b[0] b[1] b[2] b[3] b[4] b[5] b[6] b[7] b[8] c vdd out[0] out[1] out[2] out[3] out[4] out[5] out[6] out[7] out[8]
Backannotation: x5:x11 a b out vdd
Backannotation: x5:x12 a b out vdd
Backannotation: x5:x15 a b out vdd
Backannotation: x5:x16 a b out vdd
Backannotation: x5:x18 a b out vdd
Backannotation: x5:x17 a b out vdd
Backannotation: x5:x20 a vdd !a
Backannotation: x5:x21 a b out vdd
Backannotation: x5:x22 a b out vdd
Backannotation: x5:x23 a vdd !a
Backannotation: x7:x1 d[0] d[1] d[2] d[3] d[4] d[5] d[6] d[7] d[8] vdd q[0] q[1] q[2] q[3] q[4] q[5] q[6] q[7] q[8] ra wa
Backannotation: x7:x2 d[0] d[1] d[2] d[3] d[4] d[5] d[6] d[7] d[8] vdd q[0] q[1] q[2] q[3] q[4] q[5] q[6] q[7] q[8] ra wa
Backannotation: x7:x4 clk vdd out[0] out[1] out[2] out[3] addr[0] addr[1]
Backannotation: x7:x3 a vdd !a
Backannotation: x7:x5 a vdd !a
Backannotation: x7:x6 a vdd !a
Backannotation: x7:x7 a vdd !a
Backannotation: x7:x8 a vdd !a
Backannotation: x7:x9 a vdd !a
Backannotation: x7:x10 a vdd !a
Backannotation: x7:x11 a vdd !a
Backannotation: x7:x12 a vdd !a
Backannotation: x8:x1 a b c vdd out
Backannotation: x8:x2 a b c vdd out
Backannotation: x8:x3 a b c vdd out
Backannotation: x8:x4 a b c vdd out
Backannotation: x8:x5 a b c vdd out
Backannotation: x8:x6 a b c vdd out
Backannotation: x8:x7 a b c vdd out
Backannotation: x8:x8 a b c vdd out
Backannotation: x8:x9 a b c vdd out
Backannotation: x2:x1:x2 d vdd q clk !q
Backannotation: x2:x1:x1 d vdd q clk !q
Backannotation: x2:x1:x3 d vdd q clk !q
Backannotation: x2:x2:x2 a b out vdd
Backannotation: x2:x2:x3 a b out vdd
Backannotation: x2:x2:x7 a b out vdd
Backannotation: x3:x1:x1 d[0] d[1] d[2] vdd q[0] q[1] q[2] clk !q[0] !q[1] !q[2]
Backannotation: x3:x1:x2 d[0] d[1] d[2] vdd q[0] q[1] q[2] clk !q[0] !q[1] !q[2]
Backannotation: x3:x1:x3 d[0] d[1] d[2] vdd q[0] q[1] q[2] clk !q[0] !q[1] !q[2]
Backannotation: x3:x2:x1 d[0] d[1] d[2] vdd q[0] q[1] q[2] clk !q[0] !q[1] !q[2]
Backannotation: x3:x2:x2 d[0] d[1] d[2] vdd q[0] q[1] q[2] clk !q[0] !q[1] !q[2]
Backannotation: x3:x2:x3 d[0] d[1] d[2] vdd q[0] q[1] q[2] clk !q[0] !q[1] !q[2]
Backannotation: x3:x3:x1 d[0] d[1] d[2] vdd q[0] q[1] q[2] clk !q[0] !q[1] !q[2]
Backannotation: x3:x3:x2 d[0] d[1] d[2] vdd q[0] q[1] q[2] clk !q[0] !q[1] !q[2]
Backannotation: x3:x3:x3 d[0] d[1] d[2] vdd q[0] q[1] q[2] clk !q[0] !q[1] !q[2]
Backannotation: x3:x4:x1 d[0] d[1] d[2] vdd q[0] q[1] q[2] clk !q[0] !q[1] !q[2]
Backannotation: x3:x4:x2 d[0] d[1] d[2] vdd q[0] q[1] q[2] clk !q[0] !q[1] !q[2]
Backannotation: x3:x4:x3 d[0] d[1] d[2] vdd q[0] q[1] q[2] clk !q[0] !q[1] !q[2]
Backannotation: x3:x5:x1 a b c vdd out
Backannotation: x3:x5:x2 a b c vdd out
Backannotation: x3:x5:x3 a b c vdd out
Backannotation: x3:x5:x4 a b c vdd out
Backannotation: x3:x5:x5 a b c vdd out
Backannotation: x3:x5:x6 a b c vdd out
Backannotation: x3:x5:x7 a b c vdd out
Backannotation: x3:x5:x8 a b c vdd out
Backannotation: x3:x5:x9 a b c vdd out
Backannotation: x3:x6:x1 a b c vdd out
Backannotation: x3:x6:x2 a b c vdd out
Backannotation: x3:x6:x3 a b c vdd out
Backannotation: x3:x6:x4 a b c vdd out
Backannotation: x3:x6:x5 a b c vdd out
Backannotation: x3:x6:x6 a b c vdd out
Backannotation: x3:x6:x7 a b c vdd out
Backannotation: x3:x6:x8 a b c vdd out
Backannotation: x3:x6:x9 a b c vdd out
Backannotation: x3:x7:x1 a b c vdd out
Backannotation: x3:x7:x2 a b c vdd out
Backannotation: x3:x7:x3 a b c vdd out
Backannotation: x3:x7:x4 a b c vdd out
Backannotation: x3:x7:x5 a b c vdd out
Backannotation: x3:x7:x6 a b c vdd out
Backannotation: x3:x7:x7 a b c vdd out
Backannotation: x3:x7:x8 a b c vdd out
Backannotation: x3:x7:x9 a b c vdd out
Backannotation: x3:x8:x1 a b c vdd out
Backannotation: x3:x8:x2 a b c vdd out
Backannotation: x3:x8:x3 a b c vdd out
Backannotation: x3:x8:x4 a b c vdd out
Backannotation: x3:x8:x5 a b c vdd out
Backannotation: x3:x8:x6 a b c vdd out
Backannotation: x3:x8:x7 a b c vdd out
Backannotation: x3:x8:x8 a b c vdd out
Backannotation: x3:x8:x9 a b c vdd out
Backannotation: x3:x9:x1 a b c vdd out
Backannotation: x3:x9:x2 a b c vdd out
Backannotation: x3:x9:x3 a b c vdd out
Backannotation: x3:x9:x4 a b c vdd out
Backannotation: x3:x9:x5 a b c vdd out
Backannotation: x3:x9:x6 a b c vdd out
Backannotation: x3:x9:x7 a b c vdd out
Backannotation: x3:x9:x8 a b c vdd out
Backannotation: x3:x9:x9 a b c vdd out
Backannotation: x3:x10:x1 a b c vdd out
Backannotation: x3:x10:x2 a b c vdd out
Backannotation: x3:x10:x3 a b c vdd out
Backannotation: x3:x10:x4 a b c vdd out
Backannotation: x3:x10:x5 a b c vdd out
Backannotation: x3:x10:x6 a b c vdd out
Backannotation: x3:x10:x7 a b c vdd out
Backannotation: x3:x10:x8 a b c vdd out
Backannotation: x3:x10:x9 a b c vdd out
Backannotation: x3:x13:x1 a b c vdd out
Backannotation: x3:x13:x2 a b c vdd out
Backannotation: x3:x13:x3 a b c vdd out
Backannotation: x3:x13:x4 a b c vdd out
Backannotation: x3:x13:x5 a b c vdd out
Backannotation: x3:x13:x6 a b c vdd out
Backannotation: x3:x13:x7 a b c vdd out
Backannotation: x3:x13:x8 a b c vdd out
Backannotation: x3:x13:x9 a b c vdd out
Backannotation: x3:x14:x1 a b c vdd out
Backannotation: x3:x14:x2 a b c vdd out
Backannotation: x3:x14:x3 a b c vdd out
Backannotation: x3:x14:x4 a b c vdd out
Backannotation: x3:x14:x5 a b c vdd out
Backannotation: x3:x14:x6 a b c vdd out
Backannotation: x3:x14:x7 a b c vdd out
Backannotation: x3:x14:x8 a b c vdd out
Backannotation: x3:x14:x9 a b c vdd out
Backannotation: x3:x19:x1 a b c vdd out
Backannotation: x3:x19:x2 a b c vdd out
Backannotation: x3:x19:x3 a b c vdd out
Backannotation: x3:x19:x4 a b c vdd out
Backannotation: x3:x19:x5 a b c vdd out
Backannotation: x3:x19:x6 a b c vdd out
Backannotation: x3:x19:x7 a b c vdd out
Backannotation: x3:x19:x8 a b c vdd out
Backannotation: x3:x19:x9 a b c vdd out
Backannotation: x3:x24:x1 a b c vdd out
Backannotation: x3:x24:x2 a b c vdd out
Backannotation: x3:x24:x3 a b c vdd out
Backannotation: x3:x24:x4 a b c vdd out
Backannotation: x3:x24:x5 a b c vdd out
Backannotation: x3:x24:x6 a b c vdd out
Backannotation: x3:x24:x7 a b c vdd out
Backannotation: x3:x24:x8 a b c vdd out
Backannotation: x3:x24:x9 a b c vdd out
Backannotation: x3:x25:x1 a b c vdd out
Backannotation: x3:x25:x2 a b c vdd out
Backannotation: x3:x25:x3 a b c vdd out
Backannotation: x3:x25:x4 a b c vdd out
Backannotation: x3:x25:x5 a b c vdd out
Backannotation: x3:x25:x6 a b c vdd out
Backannotation: x3:x25:x7 a b c vdd out
Backannotation: x3:x25:x8 a b c vdd out
Backannotation: x3:x25:x9 a b c vdd out
Backannotation: x3:x26:x1 a b c vdd out
Backannotation: x3:x26:x2 a b c vdd out
Backannotation: x3:x26:x3 a b c vdd out
Backannotation: x3:x26:x4 a b c vdd out
Backannotation: x3:x26:x5 a b c vdd out
Backannotation: x3:x26:x6 a b c vdd out
Backannotation: x3:x26:x7 a b c vdd out
Backannotation: x3:x26:x8 a b c vdd out
Backannotation: x3:x26:x9 a b c vdd out
Backannotation: x3:x11:x11 a b out vdd
Backannotation: x3:x11:x12 a b out vdd
Backannotation: x3:x11:x15 a b out vdd
Backannotation: x3:x11:x16 a b out vdd
Backannotation: x3:x11:x18 a b out vdd
Backannotation: x3:x11:x17 a b out vdd
Backannotation: x3:x11:x20 a vdd !a
Backannotation: x3:x11:x21 a b out vdd
Backannotation: x3:x11:x22 a b out vdd
Backannotation: x3:x11:x23 a vdd !a
Backannotation: x4:x1:x1 a vdd sum b c
Backannotation: x4:x1:x2 a vdd sum b co c
Backannotation: x4:x1:x3 a vdd sum b co c
Backannotation: x4:x1:x4 a vdd sum b co c
Backannotation: x4:x2:x1 a b out vdd
Backannotation: x4:x2:x2 a b out vdd
Backannotation: x4:x2:x3 a b out vdd
Backannotation: x4:x2:x4 a b out vdd
Backannotation: x4:x2:x5 a b out vdd
Backannotation: x4:x2:x6 a b out vdd
Backannotation: x4:x2:x7 a b out vdd
Backannotation: x4:x2:x8 a b out vdd
Backannotation: x4:x2:x9 a vdd sum b c
Backannotation: x4:x2:x10 a vdd sum b co c
Backannotation: x4:x2:x11 a vdd sum b co c
Backannotation: x4:x2:x13 a b out vdd
Backannotation: x4:x2:x14 a b out vdd
Backannotation: x4:x2:x15 a b out vdd
Backannotation: x4:x2:x16 a b out vdd
Backannotation: x4:x2:x17 a b out vdd
Backannotation: x4:x2:x18 a b out vdd
Backannotation: x4:x2:x19 a b out vdd
Backannotation: x4:x2:x20 a b out vdd
Backannotation: x4:x2:x21 a[0] a[1] a[2] a[3] vdd sum[0] sum[1] sum[2] sum[3] b[0] b[1] b[2] b[3] co
Backannotation: x4:x2:x22 a vdd sum b c
Backannotation: x4:x2:x23 a vdd sum b co c
Backannotation: x4:x2:x24 a vdd sum b co c
Backannotation: x4:x2:x12 a vdd sum b c
Backannotation: x4:x2:x25 a vdd sum b co c
Backannotation: x4:x3:x1 a b c vdd out
Backannotation: x4:x3:x2 a b c vdd out
Backannotation: x4:x3:x3 a b c vdd out
Backannotation: x4:x3:x4 a b c vdd out
Backannotation: x4:x3:x5 a b c vdd out
Backannotation: x4:x3:x6 a b c vdd out
Backannotation: x4:x3:x7 a b c vdd out
Backannotation: x4:x3:x8 a b c vdd out
Backannotation: x4:x3:x9 a b c vdd out
Backannotation: x5:x12:x3 a b out vdd
Backannotation: x5:x12:x4 a vdd !a
Backannotation: x5:x16:x3 a b out vdd
Backannotation: x5:x16:x4 a vdd !a
Backannotation: x5:x18:x3 a b out vdd
Backannotation: x5:x18:x4 a vdd !a
Backannotation: x5:x17:x3 a b out vdd
Backannotation: x5:x17:x4 a vdd !a
Backannotation: x5:x22:x3 a b out vdd
Backannotation: x5:x22:x4 a vdd !a
Backannotation: x7:x1:x3 d vdd q ra wa
Backannotation: x7:x1:x4 d vdd q ra wa
Backannotation: x7:x1:x5 d vdd q ra wa
Backannotation: x7:x1:x6 d vdd q ra wa
Backannotation: x7:x1:x7 d vdd q ra wa
Backannotation: x7:x1:x8 d vdd q ra wa
Backannotation: x7:x2:x3 d vdd q ra wa
Backannotation: x7:x2:x4 d vdd q ra wa
Backannotation: x7:x2:x5 d vdd q ra wa
Backannotation: x7:x2:x6 d vdd q ra wa
Backannotation: x7:x2:x7 d vdd q ra wa
Backannotation: x7:x2:x8 d vdd q ra wa
Backannotation: x7:x4:x11 a b out vdd
Backannotation: x7:x4:x12 a b out vdd
Backannotation: x7:x4:x15 a b out vdd
Backannotation: x7:x4:x16 a b out vdd
Backannotation: x7:x4:x18 a b out vdd
Backannotation: x7:x4:x17 a b out vdd
Backannotation: x7:x4:x20 a vdd !a
Backannotation: x7:x4:x21 a b out vdd
Backannotation: x7:x4:x22 a b out vdd
Backannotation: x7:x4:x23 a vdd !a
Backannotation: x8:x1:x1 a b out vdd
Backannotation: x8:x1:x3 a b out vdd
Backannotation: x8:x1:x4 a vdd !a
Backannotation: x8:x1:x5 a b out vdd
Backannotation: x8:x2:x1 a b out vdd
Backannotation: x8:x2:x3 a b out vdd
Backannotation: x8:x2:x4 a vdd !a
Backannotation: x8:x2:x5 a b out vdd
Backannotation: x8:x3:x1 a b out vdd
Backannotation: x8:x3:x3 a b out vdd
Backannotation: x8:x3:x4 a vdd !a
Backannotation: x8:x3:x5 a b out vdd
Backannotation: x8:x4:x1 a b out vdd
Backannotation: x8:x4:x3 a b out vdd
Backannotation: x8:x4:x4 a vdd !a
Backannotation: x8:x4:x5 a b out vdd
Backannotation: x8:x5:x1 a b out vdd
Backannotation: x8:x5:x3 a b out vdd
Backannotation: x8:x5:x4 a vdd !a
Backannotation: x8:x5:x5 a b out vdd
Backannotation: x8:x6:x1 a b out vdd
Backannotation: x8:x6:x3 a b out vdd
Backannotation: x8:x6:x4 a vdd !a
Backannotation: x8:x6:x5 a b out vdd
Backannotation: x8:x7:x1 a b out vdd
Backannotation: x8:x7:x3 a b out vdd
Backannotation: x8:x7:x4 a vdd !a
Backannotation: x8:x7:x5 a b out vdd
Backannotation: x8:x8:x1 a b out vdd
Backannotation: x8:x8:x3 a b out vdd
Backannotation: x8:x8:x4 a vdd !a
Backannotation: x8:x8:x5 a b out vdd
Backannotation: x8:x9:x1 a b out vdd
Backannotation: x8:x9:x3 a b out vdd
Backannotation: x8:x9:x4 a vdd !a
Backannotation: x8:x9:x5 a b out vdd
Backannotation: x2:x2:x4 a vdd out
Backannotation: x2:x2:x5 a vdd out
Backannotation: x2:x2:x6 a vdd out
Backannotation: x2:x2:x2:x1 a vdd !a
Backannotation: x2:x2:x2:x4 a vdd !a
Backannotation: x2:x2:x3:x1 a vdd !a
Backannotation: x2:x2:x3:x4 a vdd !a
Backannotation: x2:x2:x7:x3 a b out vdd
Backannotation: x2:x2:x7:x4 a vdd !a
Backannotation: x2:x2:x13 a vdd !a
Backannotation: x3:x1:x1:x2 d vdd q clk !q
Backannotation: x3:x1:x1:x1 d vdd q clk !q
Backannotation: x3:x1:x1:x3 d vdd q clk !q
Backannotation: x3:x1:x2:x2 d vdd q clk !q
Backannotation: x3:x1:x2:x1 d vdd q clk !q
Backannotation: x3:x1:x2:x3 d vdd q clk !q
Backannotation: x3:x1:x3:x2 d vdd q clk !q
Backannotation: x3:x1:x3:x1 d vdd q clk !q
Backannotation: x3:x1:x3:x3 d vdd q clk !q
Backannotation: x3:x2:x1:x2 d vdd q clk !q
Backannotation: x3:x2:x1:x1 d vdd q clk !q
Backannotation: x3:x2:x1:x3 d vdd q clk !q
Backannotation: x3:x2:x2:x2 d vdd q clk !q
Backannotation: x3:x2:x2:x1 d vdd q clk !q
Backannotation: x3:x2:x2:x3 d vdd q clk !q
Backannotation: x3:x2:x3:x2 d vdd q clk !q
Backannotation: x3:x2:x3:x1 d vdd q clk !q
Backannotation: x3:x2:x3:x3 d vdd q clk !q
Backannotation: x3:x3:x1:x2 d vdd q clk !q
Backannotation: x3:x3:x1:x1 d vdd q clk !q
Backannotation: x3:x3:x1:x3 d vdd q clk !q
Backannotation: x3:x3:x2:x2 d vdd q clk !q
Backannotation: x3:x3:x2:x1 d vdd q clk !q
Backannotation: x3:x3:x2:x3 d vdd q clk !q
Backannotation: x3:x3:x3:x2 d vdd q clk !q
Backannotation: x3:x3:x3:x1 d vdd q clk !q
Backannotation: x3:x3:x3:x3 d vdd q clk !q
Backannotation: x3:x4:x1:x2 d vdd q clk !q
Backannotation: x3:x4:x1:x1 d vdd q clk !q
Backannotation: x3:x4:x1:x3 d vdd q clk !q
Backannotation: x3:x4:x2:x2 d vdd q clk !q
Backannotation: x3:x4:x2:x1 d vdd q clk !q
Backannotation: x3:x4:x2:x3 d vdd q clk !q
Backannotation: x3:x4:x3:x2 d vdd q clk !q
Backannotation: x3:x4:x3:x1 d vdd q clk !q
Backannotation: x3:x4:x3:x3 d vdd q clk !q
Backannotation: x3:x5:x1:x1 a b out vdd
Backannotation: x3:x5:x1:x3 a b out vdd
Backannotation: x3:x5:x1:x4 a vdd !a
Backannotation: x3:x5:x1:x5 a b out vdd
Backannotation: x3:x5:x2:x1 a b out vdd
Backannotation: x3:x5:x2:x3 a b out vdd
Backannotation: x3:x5:x2:x4 a vdd !a
Backannotation: x3:x5:x2:x5 a b out vdd
Backannotation: x3:x5:x3:x1 a b out vdd
Backannotation: x3:x5:x3:x3 a b out vdd
Backannotation: x3:x5:x3:x4 a vdd !a
Backannotation: x3:x5:x3:x5 a b out vdd
Backannotation: x3:x5:x4:x1 a b out vdd
Backannotation: x3:x5:x4:x3 a b out vdd
Backannotation: x3:x5:x4:x4 a vdd !a
Backannotation: x3:x5:x4:x5 a b out vdd
Backannotation: x3:x5:x5:x1 a b out vdd
Backannotation: x3:x5:x5:x3 a b out vdd
Backannotation: x3:x5:x5:x4 a vdd !a
Backannotation: x3:x5:x5:x5 a b out vdd
Backannotation: x3:x5:x6:x1 a b out vdd
Backannotation: x3:x5:x6:x3 a b out vdd
Backannotation: x3:x5:x6:x4 a vdd !a
Backannotation: x3:x5:x6:x5 a b out vdd
Backannotation: x3:x5:x7:x1 a b out vdd
Backannotation: x3:x5:x7:x3 a b out vdd
Backannotation: x3:x5:x7:x4 a vdd !a
Backannotation: x3:x5:x7:x5 a b out vdd
Backannotation: x3:x5:x8:x1 a b out vdd
Backannotation: x3:x5:x8:x3 a b out vdd
Backannotation: x3:x5:x8:x4 a vdd !a
Backannotation: x3:x5:x8:x5 a b out vdd
Backannotation: x3:x5:x9:x1 a b out vdd
Backannotation: x3:x5:x9:x3 a b out vdd
Backannotation: x3:x5:x9:x4 a vdd !a
Backannotation: x3:x5:x9:x5 a b out vdd
Backannotation: x3:x6:x1:x1 a b out vdd
Backannotation: x3:x6:x1:x3 a b out vdd
Backannotation: x3:x6:x1:x4 a vdd !a
Backannotation: x3:x6:x1:x5 a b out vdd
Backannotation: x3:x6:x2:x1 a b out vdd
Backannotation: x3:x6:x2:x3 a b out vdd
Backannotation: x3:x6:x2:x4 a vdd !a
Backannotation: x3:x6:x2:x5 a b out vdd
Backannotation: x3:x6:x3:x1 a b out vdd
Backannotation: x3:x6:x3:x3 a b out vdd
Backannotation: x3:x6:x3:x4 a vdd !a
Backannotation: x3:x6:x3:x5 a b out vdd
Backannotation: x3:x6:x4:x1 a b out vdd
Backannotation: x3:x6:x4:x3 a b out vdd
Backannotation: x3:x6:x4:x4 a vdd !a
Backannotation: x3:x6:x4:x5 a b out vdd
Backannotation: x3:x6:x5:x1 a b out vdd
Backannotation: x3:x6:x5:x3 a b out vdd
Backannotation: x3:x6:x5:x4 a vdd !a
Backannotation: x3:x6:x5:x5 a b out vdd
Backannotation: x3:x6:x6:x1 a b out vdd
Backannotation: x3:x6:x6:x3 a b out vdd
Backannotation: x3:x6:x6:x4 a vdd !a
Backannotation: x3:x6:x6:x5 a b out vdd
Backannotation: x3:x6:x7:x1 a b out vdd
Backannotation: x3:x6:x7:x3 a b out vdd
Backannotation: x3:x6:x7:x4 a vdd !a
Backannotation: x3:x6:x7:x5 a b out vdd
Backannotation: x3:x6:x8:x1 a b out vdd
Backannotation: x3:x6:x8:x3 a b out vdd
Backannotation: x3:x6:x8:x4 a vdd !a
Backannotation: x3:x6:x8:x5 a b out vdd
Backannotation: x3:x6:x9:x1 a b out vdd
Backannotation: x3:x6:x9:x3 a b out vdd
Backannotation: x3:x6:x9:x4 a vdd !a
Backannotation: x3:x6:x9:x5 a b out vdd
Backannotation: x3:x7:x1:x1 a b out vdd
Backannotation: x3:x7:x1:x3 a b out vdd
Backannotation: x3:x7:x1:x4 a vdd !a
Backannotation: x3:x7:x1:x5 a b out vdd
Backannotation: x3:x7:x2:x1 a b out vdd
Backannotation: x3:x7:x2:x3 a b out vdd
Backannotation: x3:x7:x2:x4 a vdd !a
Backannotation: x3:x7:x2:x5 a b out vdd
Backannotation: x3:x7:x3:x1 a b out vdd
Backannotation: x3:x7:x3:x3 a b out vdd
Backannotation: x3:x7:x3:x4 a vdd !a
Backannotation: x3:x7:x3:x5 a b out vdd
Backannotation: x3:x7:x4:x1 a b out vdd
Backannotation: x3:x7:x4:x3 a b out vdd
Backannotation: x3:x7:x4:x4 a vdd !a
Backannotation: x3:x7:x4:x5 a b out vdd
Backannotation: x3:x7:x5:x1 a b out vdd
Backannotation: x3:x7:x5:x3 a b out vdd
Backannotation: x3:x7:x5:x4 a vdd !a
Backannotation: x3:x7:x5:x5 a b out vdd
Backannotation: x3:x7:x6:x1 a b out vdd
Backannotation: x3:x7:x6:x3 a b out vdd
Backannotation: x3:x7:x6:x4 a vdd !a
Backannotation: x3:x7:x6:x5 a b out vdd
Backannotation: x3:x7:x7:x1 a b out vdd
Backannotation: x3:x7:x7:x3 a b out vdd
Backannotation: x3:x7:x7:x4 a vdd !a
Backannotation: x3:x7:x7:x5 a b out vdd
Backannotation: x3:x7:x8:x1 a b out vdd
Backannotation: x3:x7:x8:x3 a b out vdd
Backannotation: x3:x7:x8:x4 a vdd !a
Backannotation: x3:x7:x8:x5 a b out vdd
Backannotation: x3:x7:x9:x1 a b out vdd
Backannotation: x3:x7:x9:x3 a b out vdd
Backannotation: x3:x7:x9:x4 a vdd !a
Backannotation: x3:x7:x9:x5 a b out vdd
Backannotation: x3:x8:x1:x1 a b out vdd
Backannotation: x3:x8:x1:x3 a b out vdd
Backannotation: x3:x8:x1:x4 a vdd !a
Backannotation: x3:x8:x1:x5 a b out vdd
Backannotation: x3:x8:x2:x1 a b out vdd
Backannotation: x3:x8:x2:x3 a b out vdd
Backannotation: x3:x8:x2:x4 a vdd !a
Backannotation: x3:x8:x2:x5 a b out vdd
Backannotation: x3:x8:x3:x1 a b out vdd
Backannotation: x3:x8:x3:x3 a b out vdd
Backannotation: x3:x8:x3:x4 a vdd !a
Backannotation: x3:x8:x3:x5 a b out vdd
Backannotation: x3:x8:x4:x1 a b out vdd
Backannotation: x3:x8:x4:x3 a b out vdd
Backannotation: x3:x8:x4:x4 a vdd !a
Backannotation: x3:x8:x4:x5 a b out vdd
Backannotation: x3:x8:x5:x1 a b out vdd
Backannotation: x3:x8:x5:x3 a b out vdd
Backannotation: x3:x8:x5:x4 a vdd !a
Backannotation: x3:x8:x5:x5 a b out vdd
Backannotation: x3:x8:x6:x1 a b out vdd
Backannotation: x3:x8:x6:x3 a b out vdd
Backannotation: x3:x8:x6:x4 a vdd !a
Backannotation: x3:x8:x6:x5 a b out vdd
Backannotation: x3:x8:x7:x1 a b out vdd
Backannotation: x3:x8:x7:x3 a b out vdd
Backannotation: x3:x8:x7:x4 a vdd !a
Backannotation: x3:x8:x7:x5 a b out vdd
Backannotation: x3:x8:x8:x1 a b out vdd
Backannotation: x3:x8:x8:x3 a b out vdd
Backannotation: x3:x8:x8:x4 a vdd !a
Backannotation: x3:x8:x8:x5 a b out vdd
Backannotation: x3:x8:x9:x1 a b out vdd
Backannotation: x3:x8:x9:x3 a b out vdd
Backannotation: x3:x8:x9:x4 a vdd !a
Backannotation: x3:x8:x9:x5 a b out vdd
Backannotation: x3:x9:x1:x1 a b out vdd
Backannotation: x3:x9:x1:x3 a b out vdd
Backannotation: x3:x9:x1:x4 a vdd !a
Backannotation: x3:x9:x1:x5 a b out vdd
Backannotation: x3:x9:x2:x1 a b out vdd
Backannotation: x3:x9:x2:x3 a b out vdd
Backannotation: x3:x9:x2:x4 a vdd !a
Backannotation: x3:x9:x2:x5 a b out vdd
Backannotation: x3:x9:x3:x1 a b out vdd
Backannotation: x3:x9:x3:x3 a b out vdd
Backannotation: x3:x9:x3:x4 a vdd !a
Backannotation: x3:x9:x3:x5 a b out vdd
Backannotation: x3:x9:x4:x1 a b out vdd
Backannotation: x3:x9:x4:x3 a b out vdd
Backannotation: x3:x9:x4:x4 a vdd !a
Backannotation: x3:x9:x4:x5 a b out vdd
Backannotation: x3:x9:x5:x1 a b out vdd
Backannotation: x3:x9:x5:x3 a b out vdd
Backannotation: x3:x9:x5:x4 a vdd !a
Backannotation: x3:x9:x5:x5 a b out vdd
Backannotation: x3:x9:x6:x1 a b out vdd
Backannotation: x3:x9:x6:x3 a b out vdd
Backannotation: x3:x9:x6:x4 a vdd !a
Backannotation: x3:x9:x6:x5 a b out vdd
Backannotation: x3:x9:x7:x1 a b out vdd
Backannotation: x3:x9:x7:x3 a b out vdd
Backannotation: x3:x9:x7:x4 a vdd !a
Backannotation: x3:x9:x7:x5 a b out vdd
Backannotation: x3:x9:x8:x1 a b out vdd
Backannotation: x3:x9:x8:x3 a b out vdd
Backannotation: x3:x9:x8:x4 a vdd !a
Backannotation: x3:x9:x8:x5 a b out vdd
Backannotation: x3:x9:x9:x1 a b out vdd
Backannotation: x3:x9:x9:x3 a b out vdd
Backannotation: x3:x9:x9:x4 a vdd !a
Backannotation: x3:x9:x9:x5 a b out vdd
Backannotation: x3:x10:x1:x1 a b out vdd
Backannotation: x3:x10:x1:x3 a b out vdd
Backannotation: x3:x10:x1:x4 a vdd !a
Backannotation: x3:x10:x1:x5 a b out vdd
Backannotation: x3:x10:x2:x1 a b out vdd
Backannotation: x3:x10:x2:x3 a b out vdd
Backannotation: x3:x10:x2:x4 a vdd !a
Backannotation: x3:x10:x2:x5 a b out vdd
Backannotation: x3:x10:x3:x1 a b out vdd
Backannotation: x3:x10:x3:x3 a b out vdd
Backannotation: x3:x10:x3:x4 a vdd !a
Backannotation: x3:x10:x3:x5 a b out vdd
Backannotation: x3:x10:x4:x1 a b out vdd
Backannotation: x3:x10:x4:x3 a b out vdd
Backannotation: x3:x10:x4:x4 a vdd !a
Backannotation: x3:x10:x4:x5 a b out vdd
Backannotation: x3:x10:x5:x1 a b out vdd
Backannotation: x3:x10:x5:x3 a b out vdd
Backannotation: x3:x10:x5:x4 a vdd !a
Backannotation: x3:x10:x5:x5 a b out vdd
Backannotation: x3:x10:x6:x1 a b out vdd
Backannotation: x3:x10:x6:x3 a b out vdd
Backannotation: x3:x10:x6:x4 a vdd !a
Backannotation: x3:x10:x6:x5 a b out vdd
Backannotation: x3:x10:x7:x1 a b out vdd
Backannotation: x3:x10:x7:x3 a b out vdd
Backannotation: x3:x10:x7:x4 a vdd !a
Backannotation: x3:x10:x7:x5 a b out vdd
Backannotation: x3:x10:x8:x1 a b out vdd
Backannotation: x3:x10:x8:x3 a b out vdd
Backannotation: x3:x10:x8:x4 a vdd !a
Backannotation: x3:x10:x8:x5 a b out vdd
Backannotation: x3:x10:x9:x1 a b out vdd
Backannotation: x3:x10:x9:x3 a b out vdd
Backannotation: x3:x10:x9:x4 a vdd !a
Backannotation: x3:x10:x9:x5 a b out vdd
Backannotation: x3:x13:x1:x1 a b out vdd
Backannotation: x3:x13:x1:x3 a b out vdd
Backannotation: x3:x13:x1:x4 a vdd !a
Backannotation: x3:x13:x1:x5 a b out vdd
Backannotation: x3:x13:x2:x1 a b out vdd
Backannotation: x3:x13:x2:x3 a b out vdd
Backannotation: x3:x13:x2:x4 a vdd !a
Backannotation: x3:x13:x2:x5 a b out vdd
Backannotation: x3:x13:x3:x1 a b out vdd
Backannotation: x3:x13:x3:x3 a b out vdd
Backannotation: x3:x13:x3:x4 a vdd !a
Backannotation: x3:x13:x3:x5 a b out vdd
Backannotation: x3:x13:x4:x1 a b out vdd
Backannotation: x3:x13:x4:x3 a b out vdd
Backannotation: x3:x13:x4:x4 a vdd !a
Backannotation: x3:x13:x4:x5 a b out vdd
Backannotation: x3:x13:x5:x1 a b out vdd
Backannotation: x3:x13:x5:x3 a b out vdd
Backannotation: x3:x13:x5:x4 a vdd !a
Backannotation: x3:x13:x5:x5 a b out vdd
Backannotation: x3:x13:x6:x1 a b out vdd
Backannotation: x3:x13:x6:x3 a b out vdd
Backannotation: x3:x13:x6:x4 a vdd !a
Backannotation: x3:x13:x6:x5 a b out vdd
Backannotation: x3:x13:x7:x1 a b out vdd
Backannotation: x3:x13:x7:x3 a b out vdd
Backannotation: x3:x13:x7:x4 a vdd !a
Backannotation: x3:x13:x7:x5 a b out vdd
Backannotation: x3:x13:x8:x1 a b out vdd
Backannotation: x3:x13:x8:x3 a b out vdd
Backannotation: x3:x13:x8:x4 a vdd !a
Backannotation: x3:x13:x8:x5 a b out vdd
Backannotation: x3:x13:x9:x1 a b out vdd
Backannotation: x3:x13:x9:x3 a b out vdd
Backannotation: x3:x13:x9:x4 a vdd !a
Backannotation: x3:x13:x9:x5 a b out vdd
Backannotation: x3:x14:x1:x1 a b out vdd
Backannotation: x3:x14:x1:x3 a b out vdd
Backannotation: x3:x14:x1:x4 a vdd !a
Backannotation: x3:x14:x1:x5 a b out vdd
Backannotation: x3:x14:x2:x1 a b out vdd
Backannotation: x3:x14:x2:x3 a b out vdd
Backannotation: x3:x14:x2:x4 a vdd !a
Backannotation: x3:x14:x2:x5 a b out vdd
Backannotation: x3:x14:x3:x1 a b out vdd
Backannotation: x3:x14:x3:x3 a b out vdd
Backannotation: x3:x14:x3:x4 a vdd !a
Backannotation: x3:x14:x3:x5 a b out vdd
Backannotation: x3:x14:x4:x1 a b out vdd
Backannotation: x3:x14:x4:x3 a b out vdd
Backannotation: x3:x14:x4:x4 a vdd !a
Backannotation: x3:x14:x4:x5 a b out vdd
Backannotation: x3:x14:x5:x1 a b out vdd
Backannotation: x3:x14:x5:x3 a b out vdd
Backannotation: x3:x14:x5:x4 a vdd !a
Backannotation: x3:x14:x5:x5 a b out vdd
Backannotation: x3:x14:x6:x1 a b out vdd
Backannotation: x3:x14:x6:x3 a b out vdd
Backannotation: x3:x14:x6:x4 a vdd !a
Backannotation: x3:x14:x6:x5 a b out vdd
Backannotation: x3:x14:x7:x1 a b out vdd
Backannotation: x3:x14:x7:x3 a b out vdd
Backannotation: x3:x14:x7:x4 a vdd !a
Backannotation: x3:x14:x7:x5 a b out vdd
Backannotation: x3:x14:x8:x1 a b out vdd
Backannotation: x3:x14:x8:x3 a b out vdd
Backannotation: x3:x14:x8:x4 a vdd !a
Backannotation: x3:x14:x8:x5 a b out vdd
Backannotation: x3:x14:x9:x1 a b out vdd
Backannotation: x3:x14:x9:x3 a b out vdd
Backannotation: x3:x14:x9:x4 a vdd !a
Backannotation: x3:x14:x9:x5 a b out vdd
Backannotation: x3:x19:x1:x1 a b out vdd
Backannotation: x3:x19:x1:x3 a b out vdd
Backannotation: x3:x19:x1:x4 a vdd !a
Backannotation: x3:x19:x1:x5 a b out vdd
Backannotation: x3:x19:x2:x1 a b out vdd
Backannotation: x3:x19:x2:x3 a b out vdd
Backannotation: x3:x19:x2:x4 a vdd !a
Backannotation: x3:x19:x2:x5 a b out vdd
Backannotation: x3:x19:x3:x1 a b out vdd
Backannotation: x3:x19:x3:x3 a b out vdd
Backannotation: x3:x19:x3:x4 a vdd !a
Backannotation: x3:x19:x3:x5 a b out vdd
Backannotation: x3:x19:x4:x1 a b out vdd
Backannotation: x3:x19:x4:x3 a b out vdd
Backannotation: x3:x19:x4:x4 a vdd !a
Backannotation: x3:x19:x4:x5 a b out vdd
Backannotation: x3:x19:x5:x1 a b out vdd